[Molden Format]
[Molpro variables]
_NUMVAR=  956.0000000000000    
_AVOGAD= 0.6022136736000000E+24
_BOLTZ= 0.1380658000000000E-22
_CLIGHT=  29979245800.00000    
_EV= 0.3674932379085202E-01
_ENULL= 0.8854187817000000E-11
_KJOULE= 0.3808798324128737E-03
_KJOULE/MOL= 0.3808798324128737E-03
_CM= 0.4556335267302901E-05
_CM-1= 0.4556335267302901E-05
_DEB2SI= 0.3335641000000000E-29
_AMU2AU=  1822.888390000000    
_KCAL= 0.1593601117815568E-02
_KCAL/MOL= 0.1593601117815568E-02
_KELVIN= 0.3166811411060229E-05
_JOULE= 0.4359748200000000E-17
_HERTZ= 0.1519829846004524E-15
_HZ= 0.1519829846004524E-15
_JPCAL=  4.184000000000000    
_PLANCK= 0.6626075540000000E-33
_TOA= 0.5291772109200000    
_TOANG= 0.5291772109200000    
_TORAD= 0.1745329251994330E-01
_TOCM=  219474.6306700000    
_TODEBYE=  2.541580000000000    
_TOE= 0.4803242000000000E-09
_TOEV=  27.21138505000000    
_TOHERTZ=  6579683920729000.    
_TOHZ=  6579683920729000.    
_TOK=  315775.0400000000    
_TOKCAL=  627.5096000000000    
_TOKELVIN=  315775.0400000000    
_TOKJ=  2625.500000000000    
_TOKJOULE=  2625.500000000000    
_TOKG= 0.1660565586000000E-26
_ANG=  1.889726124565062    
_ANGSTROM=  1.889726124565062    
_RPAREF=  0.000000000000000    
_RPADISS=  0.000000000000000    
_IGNORE_UNDEF=  2.000000000000000    
_STRICTCHECK=  0.000000000000000    
!SEWARD=  0.000000000000000    
!MULTI=  0.000000000000000    
_SEW_ONEEL=  0.000000000000000    
_CPPDONE=FALSE
_DKROLL_DONE=  0.000000000000000    
_FNUC_DONE=  0.000000000000000    
_FOCKDONE=TRUE
_GRADONE=FALSE
_HESSDONE=TRUE
_INTDONE=TRUE
_SCFDONE=TRUE
_MODUL_BLOCK=FALSE
_MODUL_CUDA=FALSE
_MODUL_SLATER=FALSE
_MODUL_MRCC=FALSE
_MODUL_NBO6=FALSE
_MODUL_NECI=FALSE
_MODUL_AIMS=FALSE
_MODUL_GECCO=FALSE
_ISWINDOWS=FALSE
_MRCC_EXEC=
_FITC_AO_SAVED=FALSE
_FITC_MO_SAVED=FALSE
_SHARED_FS=TRUE
_LSTYP=SEWARD
_INTYP=INTS
_GEOMTYP=ZMAT
_GRADTYP=ALASKA
_DIRECT=FALSE
_DKHO= -1.000000000000000    
_FNUC=  0.000000000000000    
_SYNCM=  0.000000000000000    
_BASIS=AVTZ
_ZORIENT=  1.000000000000000    
_NELEC=  14.00000000000000    
!SPIN=  0.000000000000000    
_OPTCONV= 0.1076286801149351E-03
_QSDSTEP=  0.000000000000000    
_QSDIRC=  0.000000000000000    
_PROGRAM=POP
_CPUSTEP=  0.000000000000000    
_SYSSTEP=  0.000000000000000    
_WALLSTEP= 0.1000000000000000E-01
!DFMP2=  1.000000000000000    
!DFSCF=  0.000000000000000    
!SCSGRD=  0.000000000000000    
_ATCHARGE= 0.1398615594828136    
_CPUTOT=  69.35000000000001    
_CPUF12B= 0.7999999999999829E-01
_SYSF12B=  0.000000000000000    
_WALLF12B= 0.7999999914318323E-01
_DFTEXFAC=  1.000000000000000    
_DMX=  0.000000000000000    
_DMY=  0.000000000000000    
_DMZ=  0.000000000000000    
_DMX_SCF= 0.7174002805266468E-15
_DMY_SCF=-0.1790931033628581E-14
_DMZ_SCF=-0.1102494959711369    
_FREQUENCIES= 0.1914966161034459E-04
_HOMO=  7.100000000000000    
_EHOMO=-0.5552434077134039    
_LUMO=  8.100000000000000    
_ELUMO= 0.6930080760554469E-01
_EMP2_SING=-0.2243383638121599    
_EMP2_TRIP=-0.1368318848264782    
_EMP2_SINGLES=  0.000000000000000    
_EMP2_SCS= -113.1421233184549    
_ECSING=-0.2718895615175982    
_ECTRIP=-0.1226094463224316    
_EF12_SING=-0.3247465200949046E-01
_EF12_TRIP=-0.5453046694844194E-02
_EF12_RHFRELAX=-0.6672892965675039E-02
_EF12_SINGLES=-0.6672892965675039E-02
_EF12_SCS=-0.4236258924373604E-01
_EF12_STRONG=-0.3792769870433464E-01
_EF12_CLOSE=  0.000000000000000    
_EF12_WEAK=  0.000000000000000    
_EF12_DIST=  0.000000000000000    
_EF12S_SING=-0.3237308054223904E-01
_EF12S_TRIP=-0.5436461115164718E-02
_EF12S_SCS=-0.4223038356678938E-01
_EF12S_STRONG=-0.3780954165740376E-01
_EF12S_CLOSE=  0.000000000000000    
_EF12S_WEAK=  0.000000000000000    
_EF12S_DIST=  0.000000000000000    
_EF12D_SING=-0.3947620494825532E-01
_EF12D_TRIP=-0.6762242849157337E-02
_EF12D_SCS=-0.5157906371071536E-01
_EF12D_STRONG=-0.4623844779741264E-01
_EF12D_CLOSE=  0.000000000000000    
_EF12D_WEAK=  0.000000000000000    
_EF12D_DIST=  0.000000000000000    
_ENERG_CC=  0.000000000000000    
_ENERG_CV=  0.000000000000000    
_ENERG_VV=-0.3944990057439649    
_ENERGY=  0.000000000000000    
_ENERGY_METHOD=POP
_ENERGY_BASIS=aug-cc-pVTZ
_GEOMETRY_METHOD=
_GEOMETRY_BASIS=
_ENUC=  22.46033321173561    
_GRADEXFAC=  9999.000000000000    
_GRADMETHOD=  0.000000000000000    
_NMRMETHOD=  0.000000000000000    
_NMRMAGNET=  0.000000000000000    
!GRID_FREEZE= -1.000000000000000    
_ITERATIONS=  0.000000000000000    
_LASTNELEC=  14.00000000000000    
_LASTSPIN=  0.000000000000000    
_LASTSYM=  1.000000000000000    
_MPP_PROG=  0.000000000000000    
_MSNSTATES=  0.000000000000000    
_RS2PHASE=  0.000000000000000    
_IPROC_MPP=  0.000000000000000    
_IPROC_MPPX=  0.000000000000000    
_NPROC_MPP=  1.000000000000000    
_NPROC_MPPX=  1.000000000000000    
_NPROC_SMP=  1.000000000000000    
_NUMSTEP=  0.000000000000000    
_OPTCONVMX= 0.1076286801149351E-03
_OPTCONVRMS= 0.1076286801149351E-03
_OPTGRAD= 0.1298524409776292E-03
_OPTGRADMX= 0.1298524409776292E-03
_OPTGRADRMS= 0.1298524409776292E-03
_OPTSTEP=  2.000000000000000    
_ORBITAL=  2100.200000000000    
_PI=  3.141592653589793    
_ECDIAG=-0.1307518168606511    
_EPDIAG=-0.1307518168606511    
_SEIG_MIN= 0.4998984917025461E-03
_SEWPROP=TRUE
_STATUS=  0.000000000000000    
_SYSTOT=  4.920000000000000    
_T1DIAG= 0.1813477219878443E-01
_D1DIAG= 0.3764357505694538E-01
_VERSION=  2020001.000000000    
_WALLTOT=  74.34000000000000    
_ZPE= 0.4924674569988619E-02
!DFBASIS_MP2=AUG-CC-PVTZ-MP2F
!DFBASIS_F12K=CC-PVTZ-JKFIT
!RIBASIS_MP2=AUG-CC-PVTZ-JKFI
!RIBASIS_EXCH=
_DATE=10-Feb-25
_LASTORB=RHF
_OUTPUT=/home/lgpm/Desktop/Molpro_/autres molécules/geom.out
_PGROUP=C1
_TIME=11:59:53
_LIBMOL=/usr/local/molpro/molpro_2020.1/lib/
_VIGRDC=  0.000000000000000    
!VIBCNT=  0.000000000000000    
!RGHFCNT=  0.000000000000000    
!SURFREC=  0.000000000000000    
!XSURFREC=  0.000000000000000    
!XPOLYREC=  0.000000000000000    
!ROTREC=  0.000000000000000    
!POLYREC=  0.000000000000000    
!DIPREC=  0.000000000000000    
!DIP4DREC=  0.000000000000000    
!DIPROT=  0.000000000000000    
!DIP4DROT=  0.000000000000000    
!PTREC=  0.000000000000000    
!PT4DREC=  0.000000000000000    
!VSCFREC=  0.000000000000000    
!VCIREC=  0.000000000000000    
!PVCIREC=  0.000000000000000    
!VMP2REC=  0.000000000000000    
!VMCSCFREC=  0.000000000000000    
!VMRCIREC=  0.000000000000000    
!VIBSTATEREC=  0.000000000000000    
!VIBSTATECNT=  0.000000000000000    
!VIBINFO=  0.000000000000000    
!GAREC=  0.000000000000000    
!SCFORB=  21002.00000000000    
!CIOCC=  7.000000000000000    
!CICORE=  2.000000000000000    
!SCORE=  0.000000000000000    
!CICLOS=  7.000000000000000    
!CIISTSYM=  1.000000000000000    
!CIISTMS2=  0.000000000000000    
!CIISTNEL=  10.00000000000000    
!NEWMOL=  0.000000000000000    
!NEWSYM=  0.000000000000000    
_SLFILES=slscratch
_NGSSTO=  9.000000000000000    
_SIN=SIN
_COS=COS
_TAN=TAN
_ACOS=ACOS
_ASIN=ASIN
_ATAN=ATAN
_COSH=COSH
_SINH=SINH
_TANH=TANH
_ABS=ABS
_MOD=MOD
_ERF=ERF
_REFC=REFC
_ERFC=ERFC
_HYPOT=HYPOT
_J0=J0
_J1=J1
_JN=JN
_GAMMA=GAMMA
_LGAMMA=LGAMMA
_Y0=Y0
_Y1=Y1
_YN=YN
_EXP=EXP
_LOG=LOG
_LOG10=LOG10
_SQRT=SQRT
_INT=INT
_NINT=NINT
_MAX=MAX
_MIN=MIN
_COSMO=  0.000000000000000    
_COSMOIT=  0.000000000000000    
_COSMOES=  0.000000000000000    
_COSMOEDS=  0.000000000000000    
_COSMOEC=  0.000000000000000    
_COSMOEDCORR=  0.000000000000000    
_FEPSI=  1.000000000000000    
_SL_IsMM=  0.000000000000000    
_SL_NSYM=  1.000000000000000    
_SL_System_BitSw=  0.000000000000000    
_SL_Unique_atoms=  0.000000000000000    
_SL_GRAD=  0.000000000000000    
_SL_MAXUPD_Hess=  5.000000000000000    
_SL_N_PRINT_COD=  5.000000000000000    
_SL_PRINT_CODES=  0.000000000000000    
_SL_BasType=  0.000000000000000    
_SL_Energy_Pred=  0.000000000000000    
_SL_New_Coords=  0.000000000000000    
_SL_Total_Nuclea=  0.000000000000000    
_SL_Highest_Mltp=  0.000000000000000    
_SL_Ref_Geom=  0.000000000000000    
_SL_Symmetry_ope=  1.000000000000000    
_SL_agrad=  0.000000000000000    
_SL_GrdMax=  0.000000000000000    
_SL_GrdNorm=  0.000000000000000    
_SL_GrdRMS=  0.000000000000000    
_SL_Hss_Q=  0.000000000000000    
_SL_Hss_X=  0.000000000000000    
_SL_BMxOld=  0.000000000000000    
_SL_KtB=  0.000000000000000    
_SL_TROld=  0.000000000000000    
_SL_No_of_Intern=  0.000000000000000    
_SL_Hess=  0.000000000000000    
_SL_K=  0.000000000000000    
!LATTICE= -1.000000000000000    
!NEWLATTICE=  0.000000000000000    
!LATGRAD_VAR=FALSE
!SEW_LATTICE=  1.000000000000000    
!AIC_ONEEL=  0.000000000000000    
!LOCAL=  0.000000000000000    
!SAVEDOM= -1.000000000000000    
!RESTDOM= -1.000000000000000    
!SAVEDOM_HF= -1.000000000000000    
!RESTDOM_HF= -1.000000000000000    
!HESSREC=  5300.200000000000    
!FREQREC=  5400.200000000000    
!NMODREC=  5450.200000000000    
!GTASKS=  0.000000000000000    
!HTASKS=  0.000000000000000    
!SAVEDOM_EOM= -1.000000000000000    
!RESTDOM_EOM= -1.000000000000000    
!GRADSTATE= -1.000000000000000    
!THRCHG= 0.1000000000000000    
!DEBUG= -1.000000000000000    
!CFIT_CPHF=  0.000000000000000    
!RDOMAUX_CPHF=  5.000000000000000    
!THRAO_CPHF= 0.9999999999999999E-11
!THRMO_CPHF= 0.9999999999999999E-11
!THROV_CPHF= 0.1000000000000000E-11
!THRSW_CPHF= 0.1000000000000000E-09
!THRPROD_CPHF= 0.9999999999999999E-11
!THRAOPR_CPHF= 0.1000000000000000E-11
!CFIT_SCFGRD=  0.000000000000000    
!RDOMAUX_SCFGRD=  7.000000000000000    
!THRAO_SCFGRD= 0.9999999999999999E-11
!THRMO_SCFGRD= 0.9999999999999999E-11
!THROV_SCFGRD= 0.1000000000000000E-11
!THRSW_SCFGRD= 0.1000000000000000E-09
!THRPROD_SCFGRD= 0.9999999999999999E-11
!THRAOPR_SCFGRD= 0.1000000000000000E-11
!LOCFIT_SCF=  0.000000000000000    
!LOCFIT_MP2= -1.000000000000000    
!CC2_METHOD=  0.000000000000000    
_BASIS2006=FALSE
_SVDDEL=  0.000000000000000    
_SVDDELA= -1.000000000000000    
_SVDDELP= -1.000000000000000    
_SVDDELF= -1.000000000000000    
_SVDDELS= -1.000000000000000    
_SVDDEL_ABS= -1.000000000000000    
_SVDDELA_ABS= -1.000000000000000    
_SVDDELP_ABS= -1.000000000000000    
_SVDDELF_ABS= -1.000000000000000    
_SVDDELS_ABS= -1.000000000000000    
_MAXBASIS=  0.000000000000000    
!OPT_CONICAL=  0.000000000000000    
!CLEARSP_JGRID=  0.000000000000000    
_GRDHYBR=  0.000000000000000    
_STATEGRAD=  1.000000000000000    
_4EXT_NDISKS=  1.000000000000000    
!EMBEDFLAG=  1.000000000000000    
!EMBED=FALSE
!EMBED_F12=FALSE
!EMBEDNUC=  0.000000000000000    
_EMBEDENERGY=  0.000000000000000    
!EMBED_DFC=FALSE
!NUM_VOIDS=  0.000000000000000    
_IBODY=  0.000000000000000    
_EMBE_CORR=  0.000000000000000    
!EMBED_PROJ=FALSE
!EMB_PROJ_ZMU=  1000000.000000000    
!CORRECTION_HF=  0.000000000000000    
!EMBED_AORB=  0.000000000000000    
!EMBED_NACORR=  0.000000000000000    
!EMBED_MP2=FALSE
!EMBED_TRUNC_PERTURBATION=FALSE
!EMBED_FROZEN=  0.000000000000000    
!EMBED_ACTIVE=  0.000000000000000    
_CHANGE_BASIS=FALSE
_RESTORE_BASIS=FALSE
_FIX_EMBED_GUESS=FALSE
_EMBED_SCF=FALSE
_HUZINAGA_T=FALSE
_HUZINAGA_F=FALSE
_HUZINAGA=FALSE
_HUZINAGA_CORRECT=FALSE
!FASTLATGRAD=  1.000000000000000    
!FASTVLAMBDA= -1.000000000000000    
!IFORCE= -1.000000000000000    
!USESYM= -1.000000000000000    
_SINDEX=  0.000000000000000    
_AVDOM_OSV=  0.000000000000000    
_AVDOM_PNO=  0.000000000000000    
_AVDOM_PAO=  0.000000000000000    
_AVDOM_LMO=  0.000000000000000    
_CC2OSV_FLAG=  0.000000000000000    
_EOMCCSD_CONV=FALSE
_TMADC2_FLAG=FALSE
_PROPADC2_FLAG=FALSE
_LEN_VirQ=  0.000000000000000    
_GRDCC2LR_FLAG=FALSE
_GRDADC2_FLAG=FALSE
_RO_VGLOBAL=  0.000000000000000    
_OPT=FALSE
_FREQ=FALSE
_HESS=FALSE
_CMRCC_callName=EMPTY
_CMRCC_callCount=  0.000000000000000    
_GECCO_CIROOT=  1.000000000000000    
_SYM_CATION=  1.000000000000000    
R1=  2.137100974749556    
GX1= -0.000000000000000    
GY1= -0.000000000000000    
GZ1= -1.220701358617087    
GX2= -0.000000000000000    
GY2= -0.000000000000000    
GZ2= 0.9163996161324695    
CX1=  0.000000000000000    
CY1=  0.000000000000000    
CZ1= -1.220701358617087    
OX2=  0.000000000000000    
OY2=  0.000000000000000    
OZ2= 0.9163996161324695    
[Atoms] Angs
C     1    6         0.0000000000        0.0000000000       -0.6459673403
O     2    8         0.0000000000        0.0000000000        0.4849377930
[GTO]
   1 0
 s   10  1.00
  0.8236000000D+04  0.5309998617D-03
  0.1235000000D+04  0.4107998930D-02
  0.2808000000D+03  0.2108699451D-01
  0.7927000000D+02  0.8185297868D-01
  0.2559000000D+02  0.2348169388D+00
  0.8997000000D+01  0.4344008869D+00
  0.3319000000D+01  0.3461289099D+00
  0.9059000000D+00  0.3937798974D-01
  0.3643000000D+00 -0.8982997660D-02
  0.1285000000D+00  0.2384999379D-02
 s   10  1.00
  0.8236000000D+04 -0.1129999414D-03
  0.1235000000D+04 -0.8779995449D-03
  0.2808000000D+03 -0.4539997647D-02
  0.7927000000D+02 -0.1813299060D-01
  0.2559000000D+02 -0.5575997110D-01
  0.8997000000D+01 -0.1268949342D+00
  0.3319000000D+01 -0.1703519117D+00
  0.9059000000D+00  0.1403819272D+00
  0.3643000000D+00  0.5986836897D+00
  0.1285000000D+00  0.3953887950D+00
 s   10  1.00
  0.8236000000D+04  0.0000000000D+00
  0.1235000000D+04  0.0000000000D+00
  0.2808000000D+03  0.0000000000D+00
  0.7927000000D+02  0.0000000000D+00
  0.2559000000D+02  0.0000000000D+00
  0.8997000000D+01  0.0000000000D+00
  0.3319000000D+01  0.0000000000D+00
  0.9059000000D+00  0.1000000000D+01
  0.3643000000D+00  0.0000000000D+00
  0.1285000000D+00  0.0000000000D+00
 s   10  1.00
  0.8236000000D+04  0.0000000000D+00
  0.1235000000D+04  0.0000000000D+00
  0.2808000000D+03  0.0000000000D+00
  0.7927000000D+02  0.0000000000D+00
  0.2559000000D+02  0.0000000000D+00
  0.8997000000D+01  0.0000000000D+00
  0.3319000000D+01  0.0000000000D+00
  0.9059000000D+00  0.0000000000D+00
  0.3643000000D+00  0.0000000000D+00
  0.1285000000D+00  0.1000000000D+01
 s    1  1.00
  0.4402000000D-01  0.1000000000D+01
 p    5  1.00
  0.1871000000D+02  0.1403099838D-01
  0.4133000000D+01  0.8686598995D-01
  0.1200000000D+01  0.2902159664D+00
  0.3827000000D+00  0.5010079421D+00
  0.1209000000D+00  0.3434059603D+00
 p    5  1.00
  0.1871000000D+02  0.0000000000D+00
  0.4133000000D+01  0.0000000000D+00
  0.1200000000D+01  0.0000000000D+00
  0.3827000000D+00  0.1000000000D+01
  0.1209000000D+00  0.0000000000D+00
 p    5  1.00
  0.1871000000D+02  0.0000000000D+00
  0.4133000000D+01  0.0000000000D+00
  0.1200000000D+01  0.0000000000D+00
  0.3827000000D+00  0.0000000000D+00
  0.1209000000D+00  0.1000000000D+01
 p    1  1.00
  0.3569000000D-01  0.1000000000D+01
 d    1  1.00
  0.1097000000D+01  0.1000000000D+01
 d    1  1.00
  0.3180000000D+00  0.1000000000D+01
 d    1  1.00
  0.1000000000D+00  0.1000000000D+01
 f    1  1.00
  0.7610000000D+00  0.1000000000D+01
 f    1  1.00
  0.2680000000D+00  0.1000000000D+01
  
   2 0
 s   10  1.00
  0.1533000000D+05  0.5079996682D-03
  0.2299000000D+04  0.3928997434D-02
  0.5224000000D+03  0.2024298678D-01
  0.1473000000D+03  0.7918094828D-01
  0.4755000000D+02  0.2306868493D+00
  0.1676000000D+02  0.4331177171D+00
  0.6207000000D+01  0.3502597712D+00
  0.1752000000D+01  0.4272797209D-01
  0.6882000000D+00 -0.8153994674D-02
  0.2384000000D+00  0.2380998445D-02
 s   10  1.00
  0.1533000000D+05 -0.1150000604D-03
  0.2299000000D+04 -0.8950004697D-03
  0.5224000000D+03 -0.4636002433D-02
  0.1473000000D+03 -0.1872400983D-01
  0.4755000000D+02 -0.5846303068D-01
  0.1676000000D+02 -0.1364630716D+00
  0.6207000000D+01 -0.1757400922D+00
  0.1752000000D+01  0.1609340845D+00
  0.6882000000D+00  0.6034183167D+00
  0.2384000000D+00  0.3787651988D+00
 s   10  1.00
  0.1533000000D+05  0.0000000000D+00
  0.2299000000D+04  0.0000000000D+00
  0.5224000000D+03  0.0000000000D+00
  0.1473000000D+03  0.0000000000D+00
  0.4755000000D+02  0.0000000000D+00
  0.1676000000D+02  0.0000000000D+00
  0.6207000000D+01  0.0000000000D+00
  0.1752000000D+01  0.1000000000D+01
  0.6882000000D+00  0.0000000000D+00
  0.2384000000D+00  0.0000000000D+00
 s   10  1.00
  0.1533000000D+05  0.0000000000D+00
  0.2299000000D+04  0.0000000000D+00
  0.5224000000D+03  0.0000000000D+00
  0.1473000000D+03  0.0000000000D+00
  0.4755000000D+02  0.0000000000D+00
  0.1676000000D+02  0.0000000000D+00
  0.6207000000D+01  0.0000000000D+00
  0.1752000000D+01  0.0000000000D+00
  0.6882000000D+00  0.0000000000D+00
  0.2384000000D+00  0.1000000000D+01
 s    1  1.00
  0.7376000000D-01  0.1000000000D+01
 p    5  1.00
  0.3446000000D+02  0.1592799074D-01
  0.7749000000D+01  0.9973994203D-01
  0.2280000000D+01  0.3104918195D+00
  0.7156000000D+00  0.4910257146D+00
  0.2140000000D+00  0.3363368045D+00
 p    5  1.00
  0.3446000000D+02  0.0000000000D+00
  0.7749000000D+01  0.0000000000D+00
  0.2280000000D+01  0.0000000000D+00
  0.7156000000D+00  0.1000000000D+01
  0.2140000000D+00  0.0000000000D+00
 p    5  1.00
  0.3446000000D+02  0.0000000000D+00
  0.7749000000D+01  0.0000000000D+00
  0.2280000000D+01  0.0000000000D+00
  0.7156000000D+00  0.0000000000D+00
  0.2140000000D+00  0.1000000000D+01
 p    1  1.00
  0.5974000000D-01  0.1000000000D+01
 d    1  1.00
  0.2314000000D+01  0.1000000000D+01
 d    1  1.00
  0.6450000000D+00  0.1000000000D+01
 d    1  1.00
  0.2140000000D+00  0.1000000000D+01
 f    1  1.00
  0.1428000000D+01  0.1000000000D+01
 f    1  1.00
  0.5000000000D+00  0.1000000000D+01


[MO]
 Sym=      1.1
 Ene=     -20.6683
 Spin= Alpha
 Occup=    2.000000
1 0.000258557208112
2 0.001049341933451
3 0.000004353905400
4 -0.001158398392043
5 0.000088351020967
6 0.000000000000000
7 0.000000000000000
8 0.001125139112716
9 -0.000000000000000
10 -0.000000000000000
11 0.000663836429304
12 -0.000000000000000
13 -0.000000000000000
14 -0.000621826767744
15 -0.000000000000000
16 -0.000000000000000
17 0.000076917972517
18 -0.000108999375337
19 -0.000108999375337
20 0.000217998750673
21 -0.000000000000000
22 -0.000000000000000
23 -0.000000000000000
24 -0.000458729431104
25 -0.000458729431104
26 0.000917458862208
27 0.000000000000000
28 -0.000000000000000
29 -0.000000000000000
30 0.000029477913677
31 0.000029477913677
32 -0.000058955827353
33 -0.000000000000000
34 -0.000000000000000
35 -0.000000000000000
36 0.000000000000000
37 0.000000000000000
38 -0.000117774259014
39 0.000000000000000
40 0.000000000000000
41 0.000079005374746
42 -0.000000000000000
43 -0.000000000000000
44 0.000079005374746
45 -0.000000000000000
46 0.000000000000000
47 0.000000000000000
48 0.000480454264114
49 0.000000000000000
50 0.000000000000000
51 -0.000322298518391
52 -0.000000000000000
53 -0.000000000000000
54 -0.000322298518391
55 0.000000000000000
56 0.99853380187810
57 -0.003487251555434
58 0.001441525738470
59 0.002221664738679
60 -0.000014757150396
61 -0.000000000000000
62 -0.000000000000000
63 -0.004323880494017
64 0.000000000000000
65 0.000000000000000
66 0.003647194361013
67 0.000000000000000
68 0.000000000000000
69 0.000510221419471
70 0.000000000000000
71 0.000000000000000
72 -0.000092691618982
73 -0.000149158398817
74 -0.000149158398817
75 0.000298316797633
76 -0.000000000000000
77 -0.000000000000000
78 -0.000000000000000
79 0.000190201335751
80 0.000190201335751
81 -0.000380402671503
82 -0.000000000000000
83 -0.000000000000000
84 -0.000000000000000
85 -0.000155351833359
86 -0.000155351833359
87 0.000310703666719
88 0.000000000000000
89 -0.000000000000000
90 -0.000000000000000
91 0.000000000000000
92 -0.000000000000000
93 -0.000004639374277
94 -0.000000000000000
95 0.000000000000000
96 0.000003112186877
97 0.000000000000000
98 0.000000000000000
99 0.000003112186877
100 0.000000000000000
101 -0.000000000000000
102 -0.000000000000000
103 0.000088487372783
104 -0.000000000000000
105 -0.000000000000000
106 -0.000059359134208
107 0.000000000000000
108 0.000000000000000
109 -0.000059359134208
110 -0.000000000000000
 Sym=      2.1
 Ene=     -11.3631
 Spin= Alpha
 Occup=    2.000000
1 0.99983302702470
2 0.001852228061830
3 0.001874572777138
4 0.001676349314153
5 0.000454093124781
6 0.000000000000000
7 0.000000000000000
8 0.008904343341912
9 0.000000000000000
10 0.000000000000000
11 -0.004806766894207
12 0.000000000000000
13 0.000000000000000
14 -0.002869015885770
15 0.000000000000000
16 0.000000000000000
17 0.000141845778882
18 -0.000674520002656
19 -0.000674520002656
20 0.001349040005313
21 0.000000000000000
22 -0.000000000000000
23 -0.000000000000000
24 0.000278307611300
25 0.000278307611300
26 -0.000556615222600
27 0.000000000000000
28 0.000000000000000
29 0.000000000000000
30 0.000072759061865
31 0.000072759061865
32 -0.000145518123730
33 -0.000000000000000
34 0.000000000000000
35 0.000000000000000
36 0.000000000000000
37 -0.000000000000000
38 0.000398189893605
39 -0.000000000000000
40 -0.000000000000000
41 -0.000267113901016
42 -0.000000000000000
43 0.000000000000000
44 -0.000267113901016
45 -0.000000000000000
46 -0.000000000000000
47 -0.000000000000000
48 -0.000369955154772
49 -0.000000000000000
50 -0.000000000000000
51 0.000248173462409
52 0.000000000000000
53 0.000000000000000
54 0.000248173462409
55 0.000000000000000
56 -0.000096081145332
57 0.002047257405223
58 0.000072487580992
59 -0.001771892541598
60 -0.002817549413666
61 -0.000000000000000
62 -0.000000000000000
63 -0.001686818270139
64 -0.000000000000000
65 -0.000000000000000
66 0.000887471908591
67 -0.000000000000000
68 -0.000000000000000
69 0.002340002058677
70 -0.000000000000000
71 -0.000000000000000
72 0.000897321533474
73 -0.000117355400446
74 -0.000117355400446
75 0.000234710800892
76 0.000000000000000
77 -0.000000000000000
78 -0.000000000000000
79 0.000549758239164
80 0.000549758239164
81 -0.001099516478327
82 0.000000000000000
83 -0.000000000000000
84 0.000000000000000
85 0.000333690665471
86 0.000333690665471
87 -0.000667381330942
88 -0.000000000000000
89 0.000000000000000
90 0.000000000000000
91 -0.000000000000000
92 -0.000000000000000
93 -0.000133534774325
94 -0.000000000000000
95 -0.000000000000000
96 0.000089577849825
97 0.000000000000000
98 0.000000000000000
99 0.000089577849825
100 -0.000000000000000
101 0.000000000000000
102 0.000000000000000
103 0.000839693809609
104 0.000000000000000
105 0.000000000000000
106 -0.000563283731572
107 -0.000000000000000
108 -0.000000000000000
109 -0.000563283731572
110 -0.000000000000000
 Sym=      3.1
 Ene=      -1.5212
 Spin= Alpha
 Occup=    2.000000
1 -0.019303766024767
2 0.41822212758925
3 -0.001888228682821
4 -0.10887352649372
5 0.003949967998285
6 0.000000000000000
7 -0.000000000000000
8 0.33377451995928
9 -0.000000000000000
10 -0.000000000000000
11 -0.043546744423832
12 -0.000000000000000
13 0.000000000000000
14 -0.12015271681245
15 0.000000000000000
16 0.000000000000000
17 -0.002939124990955
18 -0.013244746871946
19 -0.013244746871946
20 0.026489493743893
21 -0.000000000000000
22 -0.000000000000000
23 -0.000000000000000
24 -0.008834724421453
25 -0.008834724421453
26 0.017669448842906
27 0.000000000000000
28 -0.000000000000000
29 -0.000000000000000
30 0.006355854978313
31 0.006355854978313
32 -0.012711709956626
33 0.000000000000000
34 -0.000000000000000
35 -0.000000000000000
36 -0.000000000000000
37 0.000000000000000
38 0.008317620654140
39 -0.000000000000000
40 -0.000000000000000
41 -0.005579629558114
42 0.000000000000000
43 -0.000000000000000
44 -0.005579629558114
45 -0.000000000000000
46 0.000000000000000
47 0.000000000000000
48 -0.004472972386681
49 0.000000000000000
50 0.000000000000000
51 0.003000561095429
52 -0.000000000000000
53 -0.000000000000000
54 0.003000561095429
55 0.000000000000000
56 -0.009342230045895
57 0.81993837334764
58 -0.006308990675201
59 -0.12126415119956
60 -0.026950360398545
61 0.000000000000000
62 0.000000000000000
63 -0.23808521833819
64 -0.000000000000000
65 -0.000000000000000
66 0.008975793738449
67 0.000000000000000
68 0.000000000000000
69 0.10710952630113
70 0.000000000000000
71 -0.000000000000000
72 0.016330572575282
73 -0.004701326177183
74 -0.004701326177183
75 0.009402652354365
76 -0.000000000000000
77 -0.000000000000000
78 0.000000000000000
79 -0.008785670278858
80 -0.008785670278858
81 0.017571340557715
82 -0.000000000000000
83 0.000000000000000
84 0.000000000000000
85 0.010311671638915
86 0.010311671638915
87 -0.020623343277830
88 -0.000000000000000
89 -0.000000000000000
90 0.000000000000000
91 0.000000000000000
92 0.000000000000000
93 -0.004231095510497
94 0.000000000000000
95 0.000000000000000
96 0.002838305154230
97 -0.000000000000000
98 -0.000000000000000
99 0.002838305154230
100 0.000000000000000
101 -0.000000000000000
102 0.000000000000000
103 -0.000259856675877
104 -0.000000000000000
105 -0.000000000000000
106 0.000174317157500
107 0.000000000000000
108 -0.000000000000000
109 0.000174317157500
110 0.000000000000000
 Sym=      4.1
 Ene=      -0.8047
 Spin= Alpha
 Occup=    2.000000
1 0.002606383617745
2 -0.57121150655484
3 -0.000494263897841
4 0.074281853568627
5 -0.005804656723924
6 -0.000000000000000
7 -0.000000000000000
8 -0.19551866971623
9 -0.000000000000000
10 0.000000000000000
11 0.019451446630667
12 0.000000000000001
13 0.000000000000001
14 0.069616251412430
15 0.000000000000001
16 0.000000000000001
17 0.001613839147812
18 0.007706243608827
19 0.007706243608827
20 -0.015412487217654
21 -0.000000000000000
22 -0.000000000000000
23 0.000000000000000
24 0.005294838049411
25 0.005294838049411
26 -0.010589676098822
27 0.000000000000000
28 0.000000000000000
29 0.000000000000000
30 -0.001795742113213
31 -0.001795742113213
32 0.003591484226426
33 -0.000000000000000
34 0.000000000000001
35 0.000000000000001
36 0.000000000000000
37 -0.000000000000000
38 -0.006751736616090
39 0.000000000000000
40 0.000000000000000
41 0.004529202611926
42 -0.000000000000000
43 0.000000000000000
44 0.004529202611926
45 -0.000000000000000
46 -0.000000000000000
47 -0.000000000000000
48 0.004840866427215
49 -0.000000000000000
50 -0.000000000000000
51 -0.003247351920375
52 0.000000000000000
53 0.000000000000000
54 -0.003247351920375
55 0.000000000000000
56 0.006124690537353
57 0.47958856710570
58 0.002136383587696
59 0.16233783184688
60 0.055965051860037
61 -0.000000000000000
62 0.000000000000000
63 0.73426307329833
64 0.000000000000000
65 0.000000000000000
66 -0.022344344073848
67 -0.000000000000000
68 -0.000000000000001
69 -0.11172235718593
70 -0.000000000000001
71 -0.000000000000001
72 -0.007043776259097
73 0.005363783337642
74 0.005363783337642
75 -0.010727566675284
76 0.000000000000000
77 0.000000000000000
78 -0.000000000000000
79 0.008975869734594
80 0.008975869734593
81 -0.017951739469187
82 -0.000000000000000
83 -0.000000000000000
84 0.000000000000000
85 -0.003256135869430
86 -0.003256135869430
87 0.006512271738860
88 -0.000000000000000
89 0.000000000000000
90 0.000000000000000
91 -0.000000000000000
92 0.000000000000000
93 0.003506677013368
94 0.000000000000000
95 -0.000000000000000
96 -0.002352350453108
97 0.000000000000000
98 0.000000000000000
99 -0.002352350453108
100 0.000000000000000
101 0.000000000000000
102 -0.000000000000000
103 0.001653736645995
104 -0.000000000000000
105 0.000000000000000
106 -0.001109360267198
107 -0.000000000000000
108 -0.000000000000000
109 -0.001109360267198
110 0.000000000000000
 Sym=      5.1
 Ene=      -0.6394
 Spin= Alpha
 Occup=    2.000000
1 -0.000000000000003
2 -0.000000000000008
3 0.000000000000002
4 0.000000000000001
5 -0.000000000000001
6 -0.12212238075269
7 0.42468199718672
8 -0.000000000000001
9 0.006805741821691
10 -0.023667046215096
11 -0.000000000000003
12 0.023185824001256
13 -0.080628972204613
14 -0.000000000000000
15 0.000480705503938
16 -0.001671658972017
17 -0.000000000000000
18 0.000000000000000
19 0.000000000000000
20 -0.000000000000000
21 -0.000000000000000
22 -0.007637590521617
23 0.026559809728759
24 0.000000000000000
25 0.000000000000000
26 -0.000000000000001
27 -0.000000000000000
28 -0.010653301170036
29 0.037046978527917
30 -0.000000000000000
31 -0.000000000000000
32 0.000000000000000
33 -0.000000000000000
34 0.000347631820059
35 -0.001208893691033
36 0.001457391501834
37 -0.005068095871265
38 -0.000000000000000
39 0.000651765293360
40 -0.002266521376140
41 0.000000000000000
42 -0.002607061174119
43 0.009066085506921
44 0.000000000000000
45 -0.000000000000000
46 0.000837815769001
47 -0.002913514065653
48 0.000000000000000
49 0.000374682600813
50 -0.001302963095248
51 0.000000000000000
52 -0.001498730408078
53 0.005211852397769
54 -0.000000000000000
55 0.000000000000000
56 -0.000000000000000
57 -0.000000000000001
58 0.000000000000000
59 0.000000000000005
60 0.000000000000002
61 -0.21935686638805
62 0.76281605009771
63 0.000000000000001
64 -0.001472669207146
65 0.005121224268911
66 -0.000000000000002
67 0.003236862798837
68 -0.011256227970329
69 -0.000000000000004
70 -0.004439575837133
71 0.015438676527198
72 -0.000000000000000
73 0.000000000000000
74 0.000000000000000
75 -0.000000000000000
76 0.000000000000000
77 0.003143675977382
78 -0.010932169716591
79 -0.000000000000000
80 -0.000000000000000
81 0.000000000000001
82 -0.000000000000000
83 0.008457493383382
84 -0.029411031451490
85 -0.000000000000001
86 -0.000000000000000
87 0.000000000000001
88 0.000000000000000
89 0.002885158193088
90 -0.010033171119713
91 0.001016172493405
92 -0.003533751645895
93 0.000000000000000
94 0.000454446154161
95 -0.001580341778252
96 -0.000000000000000
97 -0.001817784617433
98 0.006321367115746
99 -0.000000000000000
100 -0.000000000000000
101 0.000593903402315
102 -0.002065305978120
103 -0.000000000000000
104 0.000265601675243
105 -0.000923632909899
106 0.000000000000000
107 -0.001062406703030
108 0.003694531646747
109 0.000000000000000
110 -0.000000000000000
 Sym=      6.1
 Ene=      -0.6394
 Spin= Alpha
 Occup=    2.000000
1 -0.000000000000001
2 -0.000000000000002
3 0.000000000000000
4 0.000000000000003
5 0.000000000000002
6 -0.42468199718672
7 -0.12212238075269
8 -0.000000000000002
9 0.023667046215107
10 0.006805741821688
11 0.000000000000002
12 0.080628972204636
13 0.023185824001250
14 0.000000000000003
15 0.001671658972031
16 0.000480705503934
17 0.000000000000001
18 0.000000000000000
19 -0.000000000000000
20 -0.000000000000000
21 0.000000000000000
22 -0.026559809728758
23 -0.007637590521617